% Model:              3channel3D.mph
% Version:            COMSOL 5.3.0.316
% Date:               Mar 1 2023, 16:57
% Dimension:          3
% Nodes:              11626
% Expressions:        4
% Description:        Velocity field, x component, Velocity field, y component, Velocity field, z component, Pressure
% Length unit:        m
% X                       Y                        Z                        u (m/s) @ t=10           v (m/s) @ t=10           w (m/s) @ t=10           p (Pa) @ t=10
0                         0                        0                        -3.0891355207736924E-21  5.604623868599935E-22    3.1034333110946094E-21   13.218365824543042
0                         0                        0.0666667                0                        0                        0                        13.21839697334608
0                         0.0421135                0.0464958                0                        0                        0                        13.218407580825582
0                         0.0666667                0                        0                        0                        0                        13.21840334789134
0.0422258                 0.0464949                0                        0                        0                        0                        13.218341967826653
0.0464949                 0                        0.0422238                0                        0                        0                        13.218339738220811
0.0666667                 0                        0                        0                        0                        0                        13.218298611244832
0.0436069                 0.028533                 0.0577189                -2.782482600279978E-5    5.048320047987988E-6     2.7953445738881414E-5    13.21835639235114
0.0429864                 0.0426915                0.0936808                -9.677567222085984E-5    1.6331642320933726E-5    1.1654273982574599E-4    13.218361509517452
0                         0                        0.133333                 0                        0                        0                        13.218432865983768
0.101135                  0                        0.0474889                0                        0                        0                        13.21827699328327
0.0606883                 0                        0.101261                 0                        0                        0                        13.218306718521873
0.0486514                 0.073464                 0.0555701                -1.1281102947457302E-4   9.123375288722306E-5     6.013531091920504E-5     13.2183673754746
0.133333                  0                        0                        0                        0                        0                        13.218143892856261
0.101263                  0.0606837                0                        0                        0                        0                        13.218307368659898
0                         0.0474502                0.100006                 0                        0                        0                        13.218471091121106
0                         0.0998891                0.0603534                0                        0                        0                        13.218500447200787
0.0474925                 0.101134                 0                        0                        0                        0                        13.218317574356119
0                         0.133333                 0                        0                        0                        0                        13.218443958473834
0                         0.2                      0                        0                        0                        0                        13.218503119615221
0                         0.170554                 0.0563664                0                        0                        0                        13.21859035729485
0.088272                  0.0483819                0.0418831                -1.5941247106469116E-4   3.995712405236788E-5     4.168657473598906E-5     13.218354120796404
0.0846508                 0.131471                 0.0368385                -3.842249733313722E-4    3.6332547583836335E-4    5.335790467421197E-5     13.218368254374377
0.0928289                 0.0417995                0.0973499                -4.2173973975228403E-4   9.152562118112294E-5     2.304692194057431E-4     13.218340314563338
0.0621894                 0.127864                 0.0736771                -3.4640104345212995E-4   4.936448414560841E-4     1.6635827618725722E-4    13.218427656766105
0.0773615                 0.0852259                0.0849008                -5.80165646645129E-4     3.0126549676495106E-4    2.7058926633193275E-4    13.218389947338775
0.0386808                 0.0959962                0.109958                 -1.7685337625276227E-4   2.44739481835345E-4      2.258783982556251E-4     13.218467251237119
0                         0.0564746                0.166596                 0                        0                        0                        13.218564176255608
0.056987                  0                        0.17128                  0                        0                        0                        13.218255230725287
0                         0                        0.2                      -1.8776913194823844E-19  9.188923340064585E-20    2.0594437954655693E-19   13.218445543401396
0.0672179                 0.0541081                0.129878                 -3.474565433786264E-4    9.261494213717385E-5     3.6102035207669433E-4    13.218344126360662
0.0469304                 0.0411727                0.166913                 -1.1463284376606553E-4   2.802082368372057E-5     3.5402581555555224E-4    13.218446802642047
0.0540307                 0.165875                 0                        0                        0                        0                        13.218356331816002
0.165831                  0                        0.0539335                0                        0                        0                        13.218181668448707
0.141413                  0.0355407                0.0763033                -6.139646926087752E-4    1.1802899214153482E-4    1.519764428467039E-4     13.218276060670533
0.2                       0                        0                        0                        0                        0                        13.218147462796457
0.233333                  0                        0.0579227                0                        0                        0                        13.21825651238596
0.175316                  0.0481586                0.0933095                -0.0015618509227622404   2.2684920772758575E-4    3.797123714623713E-4     13.21826484210093
0.103009                  0.0407623                0.16511                  -8.080814176952007E-4    1.9721713391676322E-4    6.320938444864466E-4     13.218210856916853
0.135078                  0                        0.107113                 0                        0                        0                        13.21819897188908
0.105397                  0                        0.153299                 0                        0                        0                        13.218167347669358
0.201035                  0                        0.109898                 0                        0                        0                        13.218179886499922
0.147749                  0.0710814                0.0454939                -8.900452281163153E-4    1.9764901760370988E-4    1.1032292090634974E-4    13.218275067470582
0.109477                  0.0962482                0.0306889                -3.81679876243283E-4     2.3012852926060742E-4    4.855051851740664E-5     13.218317368123458
0.171118                  0.056988                 0                        0                        0                        0                        13.218212242998494
0.107112                  0.135077                 0                        0                        0                        0                        13.218287094305856
0.153299                  0.105395                 0                        0                        0                        0                        13.218217982806006
0                         0                        0.266667                 0                        0                        0                        13.218121312287053
0                         0.152936                 0.105716                 0                        0                        0                        13.218690414525348
0.0368738                 0.0823454                0.162546                 -2.1823788601470808E-4   2.0952422693420767E-4    4.3860215781265017E-4    13.218541601076867
0                         0.106766                 0.135016                 0                        0                        0                        13.218778556638952
0                         0.0584017                0.234008                 0                        0                        0                        13.218436220206147
0                         0.113152                 0.201077                 0                        0                        0                        13.218807459351762
0.0579227                 0.233333                 0                        0                        0                        0                        13.218192472788619
0.0521955                 0.205712                 0.0434648                -2.789776631384882E-4    6.749335494023399E-4     8.66619578452204E-5      13.21836883408987
0.100024                  0.169161                 0.0340715                -6.711378180354731E-4    6.716409922001983E-4     1.3112831664408698E-4    13.218340226316803
0.0502495                 0.171983                 0.0434648                -1.642447720667684E-4    4.26216411443761E-4      3.978074464672635E-5     13.218429428935798
0                         0.266667                 0                        0                        0                        0                        13.218237324499233
0                         0.235188                 0.0573036                0                        0                        0                        13.21844848384427
0                         0.207654                 0.108887                 0                        0                        0                        13.218743989745006
0.0669422                 0.252404                 0.0408122                -3.931624493618805E-4    0.001064699697221615     1.3613967713850235E-4    13.218135057711564
0.0464683                 0.17809                  0.0869297                -4.1680702235237586E-4   8.854179607386052E-4     3.186579345592833E-4     13.218480685741206
0.0601079                 0.143153                 0.122713                 -8.148733441967266E-4    0.0010076176330233765    7.093227528270682E-4     13.218470924342823
0.0379809                 0.239564                 0.0952556                -3.150688270291299E-4    0.001315986488857054     4.7665912305394203E-4    13.218420099720847
0.0579227                 0                        0.3                      0                        0                        0                        13.21786464772854
0.0330348                 0.0355546                0.280654                 -7.746750461062901E-5    3.2266533141513095E-6    5.273677524091562E-4     13.218081447563277
0.0551658                 0                        0.234968                 0                        0                        0                        13.218147348640356
0.109874                  0.0754018                0.145083                 -0.0015325575731514928   5.41829390517071E-4      8.7645455927025E-4       13.218313167524265
0.124379                  0.0851748                0.0909878                -0.0014934258586219165   5.189672438161166E-4     4.733845699970264E-4     13.218295576617354
0.181683                  0.096745                 0.0587717                -0.0022329076800485384   6.253049070482688E-4     2.2655115777885383E-4    13.218277586415773
0.11769                   0.131813                 0.0613778                -0.0013897457961324165   8.651811963776099E-4     3.1866016330509407E-4    13.218328959772007
0.136608                  0.152461                 0.041575                 -0.001418696620245477    9.366700996447924E-4     1.3583577989125921E-4    13.218308664036403
0.099443                  0.169692                 0.0982346                -0.001883588037545069    0.0017399258638985684    8.006562295034269E-4     13.218388693430866
0.146                     0.0425874                0.13167                  -0.0014158994215805742   2.09694730950798E-4      5.37182472588635E-4      13.21826461384073
0.152127                  0.0794807                0.129633                 -0.002781302589291497    7.341271657240263E-4     9.543873831061846E-4     13.218297983314024
0.107495                  0                        0.208716                 0                        0                        0                        13.218041051363446
0.105949                  0.136139                 0.128326                 -0.0022966211191503046   0.0015530999086173802    0.0011302883764351226    13.218433274507555
0.0737476                 0.108216                 0.158496                 -0.0011304980361084211   8.640960533128293E-4     0.0010480504438320941    13.218372797904678
0.0326836                 0.0851629                0.200054                 -2.2600141015735253E-4   2.2114633928749125E-4    6.255948019564079E-4     13.218468666719176
0.0483911                 0.0606864                0.239501                 -4.064646378291804E-4    2.149934376483914E-4     8.454106732674149E-4     13.218267952345656
0.127495                  0.0548329                0.195346                 -0.001803497616932686    4.928490410666746E-4     0.0012603861009305084    13.218186052027272
0.0653673                 0.0571733                0.19903                  -4.5355175852614707E-4   1.826475500088218E-4     8.170654376724175E-4     13.218329323750446
0.100621                  0.0815245                0.176921                 -0.001618409197570983    7.027257608682824E-4     0.0012598974376153245    13.218326729544481
0.108772                  0                        0.272186                 0                        0                        0                        13.217876263035881
0                         0.333333                 0                        0                        0                        0                        13.217951145148836
0                         0.3                      0.0579227                0                        0                        0                        13.21824931932384
0.0635893                 0.296026                 0.0453968                -2.8601812446318E-4      0.0010864525208129552    2.3337605063283805E-4    13.218189782531695
0.0579227                 0.3                      0                        0                        0                        0                        13.217856096746237
0.103595                  0.234906                 0.0340715                -8.519023856783546E-4    0.0011449827199770139    1.789978193810708E-4     13.218216488924305
0.109911                  0.200979                 0                        0                        0                        0                        13.218156671449785
0.204633                  0.0537298                0.0549489                -0.0015279157712351807   2.112377141583793E-4     1.5605008752257537E-4    13.21829363415802
0.266667                  0                        0                        0                        0                        0                        13.218252566687708
0.2355                    0.0554456                0                        0                        0                        0                        13.218359680836494
0.333333                  0                        0                        0                        0                        0                        13.218548907105458
0.3                       0                        0.0579227                0                        0                        0                        13.218504011258593
0.266791                  0.048314                 0.0633058                -0.0023325033874898914   1.997528191220133E-4     1.2680887607486324E-4    13.218408877283835
0.230452                  0.0417798                0.114019                 -0.0027418477830202844   2.1784259846018272E-4    5.206222793565613E-4     13.218314150439108
0.266524                  0                        0.113855                 0                        0                        0                        13.218289112627788
0.19438                   0.0835597                0.114183                 -0.0038345414344331764   7.861786600290058E-4     8.678200218252621E-4     13.218360288184293
0.204109                  0.0516953                0.148335                 -0.0032128486411027884   3.4899858106147107E-4    0.0010339364755597908    13.21824056495519
0.16762                   0                        0.172352                 0                        0                        0                        13.21804927674712
0.234404                  0                        0.1666                   0                        0                        0                        13.218082076384954
0.152379                  0.199188                 0.0490785                -0.00230012503683506     0.0017487190825882261    2.7344803691766047E-4    13.218224458340888
0.228169                  0.0949489                0.053806                 -0.002976959778747637    5.973952824194092E-4     2.2328192832441252E-4    13.218400924837484
0.173191                  0.135761                 0.0490785                -0.002411279831763249    0.0010041952866642917    2.2893140474825903E-4    13.218290826623436
0.208232                  0.10746                  0                        0                        0                        0                        13.218265343757885
0.172464                  0.167642                 0                        0                        0                        0                        13.218111985116648
0.4                       0                        0                        -1.3433169780736703E-18  -6.870178888655048E-20   -3.6986213856653725E-19  13.218893326787539
0.366667                  0                        0.0579227                0                        0                        0                        13.218700913387343
0                         0                        0.333333                 0                        0                        0                        13.21792931747886
0                         0.057077                 0.299817                 0                        0                        0                        13.218266431754875
0.0379809                 0.186792                 0.151766                 -4.773577145420596E-4    0.0013084157470699901    9.489670894999294E-4     13.218681662256406
0                         0.168073                 0.167246                 0                        0                        0                        13.219004183873938
0                         0.172728                 0.235522                 0                        0                        0                        13.218842773370646
0                         0.119028                 0.271587                 0                        0                        0                        13.218643141998767
0                         0                        0.4                      0                        0                        0                        13.217737537106123
0                         0.0579227                0.366667                 0                        0                        0                        13.218147774195645
0                         0.4                      0                        0                        0                        0                        13.21761884188648
0.0425835                 0.0540195                0.326329                 -1.9856021377111496E-4   2.3266501261623137E-4    9.118662472743839E-4     13.21801836482328
0.0330348                 0.0936046                0.313621                 -2.8056507983793177E-4   5.89108381195664E-4      0.0010549671281500444    13.218249684745677
0.0634368                 0.151871                 0.180464                 -0.0011657781616794933   0.0015290244868430445    0.0015648340809894393    13.218501967026665
0.0427497                 0.110811                 0.269363                 -5.265505460407059E-4    9.012016316207855E-4     0.0014324042167218871    13.218394651464566
0.0368738                 0.143537                 0.231152                 -5.126637409512008E-4    0.0012471182313479182    0.001404825024244961     13.21852384257511
0.0579227                 0                        0.366667                 0                        0                        0                        13.217612297160844
0.111867                  0                        0.336207                 0                        0                        0                        13.217436966642772
0.0579227                 0                        0.433333                 0                        0                        0                        13.21739371723878
0                         0.235035                 0.160511                 0                        0                        0                        13.218971076119145
0.0959036                 0.302404                 0.0408122                -8.250229326113224E-4    0.0015753485161975251    3.3704442233102236E-4    13.217963154211697
0.114254                  0.266567                 0                        0                        0                        0                        13.217926856902755
0.0929366                 0.203245                 0.0681429                -0.0013123486519370374   0.0016149178874417143    4.84658279331668E-4      13.218322422201037
0.127759                  0.238928                 0.0696988                -0.0023984161929233036   0.0025244476421652463    8.067810524938567E-4     13.218233808967502
0.0379809                 0.285737                 0.0697735                -1.8626663234816467E-4   0.0010678169163485314    3.425425837039391E-4     13.218255379518261
0                         0.268923                 0.111027                 0                        0                        0                        13.218665427039834
0.0326843                 0.280196                 0.149778                 -4.217008846459409E-4    0.0019472851329319484    0.0014114707370501448    13.21859505091135
0.0759618                 0.271475                 0.0816244                -0.0011656899743111588   0.0022531321395554806    9.306863013763181E-4     13.218192672635247
0.0759618                 0.205511                 0.136286                 -0.001689516644421686    0.0025367176604615955    0.0015471881288239276    13.218459712980351
0.0653685                 0.259449                 0.131486                 -0.0013917421966882992   0.0030080212476536116    0.0018306339811851662    13.218273638609515
0.0916769                 0.175237                 0.162904                 -0.0025292716100410754   0.0026362013212846546    0.002079915561021033     13.218448870245686
0.0476344                 0.226126                 0.169744                 -9.630690337658385E-4    0.0025043006045435455    0.001969530226609541     13.218528083377693
0.0660696                 0.0711092                0.294642                 -8.728873517674727E-4    6.19133672238957E-4      0.001578505578529708     13.218110332607013
0.0547218                 0.0688393                0.362402                 -4.229232399139215E-4    7.650707582230863E-4     0.0012925294647210164    13.218031497113119
0.0889681                 0.0355546                0.315425                 -5.134191165002647E-4    2.1572567705993665E-4    0.0010205640232951285    13.217818590496073
0.0967823                 0.0629711                0.244994                 -0.0012989961814059926   5.62266344293246E-4      0.0015651730440607602    13.21820044979209
0.119418                  0.0569665                0.283628                 -0.0018738449087487344   7.762492502207844E-4     0.0018717881863053473    13.21800773363594
0.053126                  0.195526                 0.202432                 -0.001138023087104104    0.0025394762980288144    0.0022755623821732597    13.218461883453132
0.147495                  0.109666                 0.181976                 -0.0041215423479293795   0.0016993403082863543    0.002129542304434546     13.218353246411626
0.166265                  0.123811                 0.10617                  -0.0038188559636992774   0.0014509234234411324    9.268576379207232E-4     13.218370919592735
0.215617                  0.122409                 0.0720495                -0.004330291026591473    0.0012320568857937969    4.457115471827749E-4     13.218409433123496
0.196789                  0.159499                 0.0834106                -0.004860073157161335    0.002094624988970578     7.517184986459834E-4     13.218368972474833
0.182992                  0.111502                 0.142077                 -0.005283799143693367    0.0015419120830252988    0.0015745575615528904    13.218404806521017
0.119917                  0.198604                 0.145345                 -0.003941110656488848    0.0034370826875261577    0.002301925731137021     13.218391123585018
0.137247                  0.150319                 0.16232                  -0.004545997875675156    0.002597302686869113     0.002207832162435063     13.218423379779688
0.138151                  0.164062                 0.098157                 -0.0032214669963748716   0.00199840068413033      9.527804922971001E-4     13.218371077818945
0.123399                  0.207631                 0.108282                 -0.0032673579411343916   0.0029059636719287645    0.0014042687492452073    13.21836615307452
0.177767                  0.0616108                0.182652                 -0.0033893509280083084   6.154310735632799E-4     0.0014795938929179867    13.218220262023584
0.154026                  0.0822494                0.21936                  -0.003751671908172542    0.0012344100897326825    0.0022646603183037054    13.218124812180207
0.170328                  0                        0.244398                 0                        0                        0                        13.217724445582379
0.174047                  0.0308054                0.213525                 -0.0018514228893501937   1.625601206531086E-4     9.957098302045045E-4     13.218013264361465
0.171694                  0                        0.305507                 0                        0                        0                        13.217422585794681
0.142053                  0.0509619                0.322262                 -0.002221957984424202    6.623878829393902E-4     0.0018265298746730498    13.217718259723833
0.160558                  0.0548329                0.256745                 -0.002710573974404146    6.388089842859626E-4     0.0018810238058507508    13.217964499033915
0.0886619                 0.125085                 0.201767                 -0.0020762941807936984   0.0016306196545126193    0.0020187907433261475    13.218415504327512
0.0854994                 0.102595                 0.267139                 -0.0019207762715622038   0.0015686982936139538    0.002370340978098132     13.218278999979361
0.0737476                 0.114347                 0.226781                 -0.0015260307195616653   0.0013948082209706177    0.0019262194623229571    13.218389070514988
0.113887                  0.098298                 0.223071                 -0.002682867431562134    0.001429644283946249     0.002198016531590295     13.218277241896175
0.106252                  0.174542                 0.195737                 -0.0037039516252665543   0.003495010389177266     0.00310654789475128      13.218356309244076
0.174805                  0.0462416                0.294735                 -0.002789279697671075    4.778152855290386E-4     0.0018219193251055761    13.21773178019418
0.0602364                 0.339648                 0.0499814                -3.808781148856677E-4    0.0012482541609830043    3.742148860769941E-4     13.217820464589664
0                         0.333333                 0.115845                 0                        0                        0                        13.218438972460758
0                         0.366667                 0.0579227                0                        0                        0                        13.218065017334526
0.0579227                 0.366667                 0                        0                        0                        0                        13.21758235638384
0.0575058                 0.326518                 0.088334                 -6.571204273417948E-4    0.0020296332133122037    9.759014835061652E-4     13.218037496976182
0.17796                   0.196589                 0.0947718                -0.005147794008071716    0.002998932421086157     0.001130623369438679     13.218319497439483