% Model:              3channel3D.mph
% Version:            COMSOL 5.3.0.316
% Date:               Mar 1 2023, 16:37
% Dimension:          3
% Nodes:              2069
% Expressions:        4
% Description:        Velocity field, x component, Velocity field, y component, Velocity field, z component, Pressure
% Length unit:        m
% X                       Y                        Z                        u (m/s) @ t=10           v (m/s) @ t=10           w (m/s) @ t=10           p (Pa) @ t=10
0                         0                        0                        7.865712897438519E-21    1.1469033493161877E-20   1.8597518755348652E-20   16.835622827970287
0.125                     0                        0                        2.567312669274139E-19    -1.0685029612930573E-19  -1.5856752008790003E-21  16.835466046294403
0                         0.0792088                0.0827545                0                        0                        0                        16.83610695909101
0.0830939                 0                        0.0770737                0                        0                        0                        16.83561980930901
0                         0                        0.125                    0                        0                        0                        16.83586222106569
0.0519358                 0.0592503                0.114121                 4.9256743276582634E-5    7.182149231345219E-5     1.1646156157211805E-4    16.835923982223168
0.187584                  0                        0.0890807                0                        0                        0                        16.835533496779526
0.0778045                 0.0830956                0                        0                        0                        0                        16.83553612324575
0.114436                  0.0592503                0.0516215                -4.7317389243504727E-4   1.9693197273911822E-4    2.923262711176076E-6     16.835540649467493
0                         0.125                    0                        4.4321431800431955E-19   -3.58037065577206E-19    -1.8728131101885826E-19  16.83602638406126
0.187248                  0.112192                 0                        0                        0                        0                        16.835680111733865
0.0894878                 0.186615                 0                        0                        0                        0                        16.835569755007864
0                         0.25                     0                        0                        0                        0                        16.835904260412686
0.25                      0                        0                        0                        0                        0                        16.835552645444817
0.375                     0                        0                        0                        0                        0                        16.835767345338027
0                         0                        0.625                    0                        0                        0                        16.835027325435206
0                         0.0998487                0.434882                 0                        0                        0                        16.835499349509412
0                         0.0957336                0.552254                 0                        0                        0                        16.835229880390127
0                         0                        0.375                    0                        0                        0                        16.835071924928016
0                         0                        0.5                      0                        0                        0                        16.834876609083988
0.111068                  0                        0.5625                   0                        0                        0                        16.833940823297283
0                         0.187493                 0.107984                 0                        0                        0                        16.837030375659864
0                         0.0880129                0.191921                 0                        0                        0                        16.836430590171823
0                         0.187637                 0.257433                 0                        0                        0                        16.83711149506199
0.103872                  0.118501                 0.103243                 -0.001701830625118972    0.0013747632770831904    7.191090979837707E-4     16.83568181368652
0                         0.0982994                0.313751                 0                        0                        0                        16.83630517695626
0                         0                        0.25                     0                        0                        0                        16.836122622102195
0.20194                   0.0738494                0.1422                   -0.00636452247558629     0.0011003777666198271    0.0017391236504941713    16.835561494147456
0.112969                  0                        0.187108                 0                        0                        0                        16.835070864340704
0.110558                  0.0838341                0.206742                 -0.0029648577471721215   0.0017971238870007247    0.002403774516449806     16.835471863307642
0.10658                   0                        0.320041                 0                        0                        0                        16.834504089619784
0.200631                  0                        0.283544                 0                        0                        0                        16.834472368639823
0.0750699                 0.142799                 0.311822                 -0.002274741624904085    0.005084108111232806     0.0046807282461757025    16.835223594543216
0.313455                  0                        0.102724                 0                        0                        0                        16.83555876870406
0.24817                   0                        0.195697                 0                        0                        0                        16.834844260611426
0.320071                  0.10219                  0                        0                        0                        0                        16.835157513380725
0.268184                  0.124944                 0.0976594                -0.010010087369919818    0.002239300096371948     0.0014818500702743834    16.83613961100312
0.625                     0                        0                        -8.806331897539461E-17   1.2689298838572399E-17   1.036747610933163E-17    16.84311644689201
0.75                      0.45                     0                        0                        0                        0                        15.87212975697648
0.76571                   0.48325                  0                        -0.23633185812636015     0.21040767409202266      -1.554352602622335       11.567087820453139
0.785355                  0.464645                 0                        -4.163735700234905E-6    3.7070376323412268E-6    -2.738443930130018E-5    15.838096182286817
0.289089                  0.197105                 0                        0                        0                        0                        16.8353160540935
0.155949                  0.174596                 0.0647061                -0.0036625776210834583   0.002311682051762084     5.951077937796263E-4     16.83547609463877
0.0623247                 0.243501                 0.0647061                -5.228082894171448E-4    0.0018713155685387954    3.750417023175156E-4     16.835601647127252
0.200755                  0.252471                 0                        0                        0                        0                        16.834521476420615
0.224926                  0.192384                 0.10765                  -0.011112501878864684    0.0047363357371806945    0.002076098482885411     16.835590763867273
0.124649                  0.237001                 0.129412                 -0.006192306881712073    0.005485653093827247     0.0031469052170981153    16.83534699841387
0                         0.319569                 0.0901723                0                        0                        0                        16.83629185825534
0.100285                  0.308794                 0                        0                        0                        0                        16.834423206372676
0                         0.375                    0                        0                        0                        0                        16.834928246758768
0.614171                  0.47679                  0                        0                        0                        0                        16.818967529844628
0                         0.5                      0                        0                        0                        0                        16.833593602052623
0                         0.204137                 0.382144                 0                        0                        0                        16.83500670065623
0                         0.292163                 0.210961                 0                        0                        0                        16.83563303227665
0                         0.279376                 0.314119                 0                        0                        0                        16.834888008657675
0                         0.291368                 0.387755                 0                        0                        0                        16.834140800855906
0                         0.353347                 0.359615                 0                        0                        0                        16.83165490708873
0                         0.201264                 0.493574                 0                        0                        0                        16.834739237675787
0                         0.268912                 0.440799                 0                        0                        0                        16.835285102766605
0                         0.440559                 0.0983504                0                        0                        0                        16.835423524838962
0                         0.3889                   0.192944                 0                        0                        0                        16.83597958652221
0.149237                  0.0559948                0.664948                 -0.003211098304201592    0.0012287527290236794    -0.0029547361597018346   16.835066643719195
0.0989127                 0                        0.686166                 0                        0                        0                        16.835150698687997
0                         0                        0.75                     -1.3704920888626956E-18  1.9602979400620357E-18   -2.8750096659010473E-18  16.836148097124035
0                         0                        0.875                    -1.825884679962865E-18   8.648914986791329E-19    -1.3064046986888055E-18  16.836384913526373
0.0868751                 0                        0.8077                   0                        0                        0                        16.835684494629074
0.079036                  0                        0.910045                 0                        0                        0                        16.836095748100846
0                         0                        1                        0                        0                        0                        16.8361311497169
0                         0.0974506                0.669354                 0                        0                        0                        16.83618454500434
0                         0.194624                 0.607535                 0                        0                        0                        16.836121365633428
0                         0.268581                 0.565303                 0                        0                        0                        16.83624896769409
0.737229                  0.486957                 0                        0.19892078358581894      0.22772477702535282      -1.6702842213602427      11.33469623515864
0.762101                  0.512206                 0                        -0.1871185438697157      -0.17549740088034413     -1.7620806832481068      10.48081181970784
0.733534                  0.515905                 0                        0.19080221288439614      -0.21296002253844531     -1.6668679881097392      10.328386759295237
0.387927                  0.20074                  0                        0                        0                        0                        16.836009929101234
0.439806                  0.105417                 0                        0                        0                        0                        16.837385304284695
0.499138                  0.201981                 0                        0                        0                        0                        16.836126712532618
0.556715                  0.101385                 0                        0                        0                        0                        16.838401282596145
0.5                       0                        0                        -5.552055508208441E-18   1.688981135564128E-18    5.555087227396075E-19    16.834138541171942
0.311579                  0.0632789                0.161419                 -0.011191413425490668    8.260342801754359E-4     0.0023212799608190306    16.835870909218386
0.374994                  0.0632789                0.0635709                -0.007384497430370675    1.8745294893096815E-4    2.3162031395240214E-4    16.836656627089756
0.4375                    0                        0.111068                 0                        0                        0                        16.83776032569091
0                         0.363086                 0.282951                 0                        0                        0                        16.831033609847005
0                         0.431676                 0.269299                 0                        0                        0                        16.834091999373147
0.187085                  0                        0.742326                 0                        0                        0                        16.83475516461238
0.684367                  0.358094                 0                        0                        0                        0                        16.822603182180902
0.634814                  0.353411                 0                        0                        0                        0                        16.827044403948054
0.630835                  0.406503                 0                        0                        0                        0                        16.819630211251297
0.670915                  0.393114                 0                        0                        0                        0                        16.81213806889806
0.713726                  0.415781                 0                        0                        0                        0                        16.729045645623057
0.716261                  0.380899                 0                        0                        0                        0                        16.79962185136745
0.755316                  0.404297                 0                        0                        0                        0                        16.725733261972554
0.781294                  0.430426                 0                        0                        0                        0                        16.593430443010238
0.687707                  0.389603                 0.0256345                -0.013312493428619433    0.0375669995223985       -0.00398885054530382     16.80937728350133
0.7                       0.5                      0                        -7.535941269011462E-16   -7.072031986609627E-16   2.138932037409778E-15    16.102316079368574
0.714645                  0.464645                 0                        2.9448209874987984E-6    3.3712843978579506E-6    -2.472639084924291E-5    16.10070512873584
0.702846                  0.442878                 0.0256345                0.022757488908540402     0.09538067612338626      0.00221978678636388      16.616345255495236
0.670726                  0.430184                 0                        0                        0                        0                        16.758937995869406
0.661132                  0.470087                 0                        0                        0                        0                        16.72066676858855
0.63451                   0.443648                 0                        0                        0                        0                        16.804693094094848
0.0869575                 0.0795318                0.561279                 -0.001867615176227417    0.0017781247928475886    -0.0018421069804466681   16.83452833241394
0.0628472                 0.159064                 0.560057                 -6.744117406291568E-4    0.007906976098239043     -0.0032510423838211055   16.834179185564224
0.0701604                 0.173964                 0.430341                 -0.0020631523762141865   0.011536701032041642     0.0026493850990875574    16.833187326208332
0.106719                  0.0801568                0.355555                 -0.0034349577045659314   0.002681550268337472     0.0027649520199095104    16.835046831458914
0.0867935                 0.0869818                0.434002                 -0.002609505892813336    0.0035251493903670507    0.0010705541265303845    16.83506844839578
0.103427                  0                        0.437663                 0                        0                        0                        16.83373518310303
0.207683                  0                        0.37934                  0                        0                        0                        16.833158949287615
0.300722                  0                        0.305038                 0                        0                        0                        16.834106255976057
0.204045                  0                        0.627801                 0                        0                        0                        16.83400784360327
0.16487                   0.0617515                0.57019                  -0.0039234212036538      0.0010273484592904728    -0.0019221674422100006   16.8350459073997
0.207581                  0                        0.506895                 0                        0                        0                        16.83285738496284
0.0880181                 0.301201                 0.185335                 -0.0050939446027416565   0.007815571977127227     0.00822676619147994      16.834984012736687
0.108148                  0.167668                 0.226376                 -0.004894117334649968    0.005847084549637195     0.005696190962474361     16.835920937115937
0.075033                  0.227417                 0.309088                 -0.004912956136534107    0.0133611329749042       0.008938644824023902     16.83316161664503
0.216296                  0.147699                 0.195319                 -0.01361738587051772     0.0046093157370486445    0.004377807458435568     16.835862203609768
0.126645                  0.0733317                0.277108                 -0.0032474309064866786   0.0015280139792851648    0.0030621423183062567    16.835307590867412
0.236708                  0.0735906                0.253196                 -0.00941010134870064     0.001555085214601268     0.0033965456875888643    16.835436208308636
0.216464                  0.0735906                0.345018                 -0.00875715727109207     0.0015912624776234293    0.0030348376607737637    16.834774983735493
0.140321                  0.146663                 0.367109                 -0.009433363858972647    0.009167705838552462     0.0062723373956736096    16.83410188553712
0.15014                   0.187299                 0.309892                 -0.012545475154153671    0.011692829973547604     0.008632912724568566     16.834786577698967
0.340915                  0.205456                 0.0752973                -0.014515825914281067    0.004536176173339582     0.001101563964857061     16.83629906173417
0.184026                  0.228588                 0.193112                 -0.015237977807106782    0.00922616244911256      0.0068053006572429756    16.835731080701706
0.382246                  0                        0.220752                 0                        0                        0                        16.8356115084348
0.346209                  0.0738494                0.237518                 -0.015873787449523894    0.00200233707836568      0.003654961102305371     16.83582874411984
0.374989                  0.126558                 0.127142                 -0.021764220012955797    0.0040767445215665       0.002186737676605531     16.83660925230383
0.293903                  0.210171                 0.150595                 -0.021589236496388112    0.00811655077334757      0.004532339421261416     16.835787947667633
0.354602                  0.18651                  0.194663                 -0.03047940854148382     0.008945382755608302     0.005776815541214082     16.836180301487495
0.310172                  0.147699                 0.254284                 -0.023960051472460903    0.0073281796557237       0.006539516954299808     16.835454333405146
0.75                      0                        0                        0                        0                        0                        16.862198273378535
0.679115                  0.097749                 0                        0                        0                        0                        16.85374357078761
0.671296                  0                        0.105621                 0                        0                        0                        16.8500203690526
0.552728                  0                        0.104906                 0                        0                        0                        16.839105405515213
0.592789                  0.103592                 0.0668213                -0.03315373835799539     0.0047772182395032095    0.003903107381832683     16.84233247607311
0.73112                   0.432788                 0.0278627                -0.0400667935951603      0.09967217892088691      -0.05630539830860235     16.598795499555905
0.759394                  0.422698                 0.0300909                -0.07395974645769962     0.12311970870095922      -0.06901922307655217     16.679557972802904
0.780176                  0.477431                 0.0247917                -0.33687727613945334     0.17709720925708966      -0.4508997825866025      15.99847925902118
0.757613                  0.46463                  0.0318943                -0.13324875699317776     0.26804986601951675      -0.30382304472203225     16.341008540164644
0.721419                  0.47943                  0.0274697                0.2564135035256533       0.2381543028402851       -0.5854282789554501      16.001689866470286
0.753176                  0.49443                  0.0292978                -0.03517392646154629     0.01789209862726449      -1.007986363614784       15.81980239727693
0.748738                  0.52423                  0.0267014                -0.012720510808769635    -0.3400993120287973      -0.7916389788160223      15.59861705542306
0.785355                  0.535355                 0                        -2.6842642922357E-6      -2.517557552982877E-6    -2.5277509227144385E-5   15.935558209908308
0.8                       0.5                      0                        0                        0                        0                        15.940579339158651
0.610783                  0.199143                 0                        0                        0                        0                        16.840570140145157
0.665702                  0.287301                 0                        0                        0                        0                        16.834941663361594
0.741715                  0.284173                 0                        0                        0                        0                        16.84782152488744
0.713418                  0.349812                 0.0379875                -0.04406189479832182     0.033236643759651976     -9.57876038492066E-5     16.823204481966044
0.756827                  0.366696                 0                        0                        0                        0                        16.813632863149714
0.72526                   0.331852                 0                        0                        0                        0                        16.832853845849698
0.783491                  0.50871                  0.0336976                -0.2675326001149126      -0.04012434547539599     -0.3638996280301015      16.300953191355543
0.784734                  0.333172                 0                        0                        0                        0                        16.85553505196878
0.807765                  0.393968                 0                        0                        0                        0                        16.83107598751785
0.807779                  0.438921                 0                        0                        0                        0                        16.728409707450805
1                         0                        0                        0                        0                        0                        16.886958637342197
0.72461                   0.206709                 0                        0                        0                        0                        16.85475130684462
0.917368                  0                        0.0932152                0                        0                        0                        16.889371153689435
0.916774                  0.0917553                0                        0                        0                        0                        16.887990902489634
0.875                     0                        0                        0                        0                        0                        16.88885670527677
0.811714                  0.110214                 0                        0                        0                        0                        16.87547721754178
0.821526                  0.250439                 0                        0                        0                        0                        16.877556678591628
0.908806                  0.191668                 0                        0                        0                        0                        16.897244670116237
0.80917                   0.447655                 0.0253447                -0.12773560134973205     0.05970946683123616      -0.05448065290396859     16.685680670104436
0.825813                  0.502123                 0.0389849                -0.1617185686342786      -0.03372952656118173     -0.06726514718772088     16.673718836209147
0.81884                   0.465846                 0                        0                        0                        0                        16.600265121120387
0.808794                  0                        0.113076                 0                        0                        0                        16.874360638040027
0.504013                  0                        0.224234                 0                        0                        0                        16.834497541961884
0.616402                  0                        0.211218                 0                        0                        0                        16.835001840158785
0.712149                  0                        0.200411                 0                        0                        0                        16.851533193893246
0.316625                  0.304896                 0                        0                        0                        0                        16.834701331439476
0.260188                  0.273935                 0.101765                 -0.013425262997593255    0.007049348939185982     0.0027844372139102192    16.835281106142904
0.138161                  0.309516                 0.0798546                -0.004377989133824776    0.004277783652424146     0.0017437679483300824    16.83526073919328
0.207968                  0.377156                 0                        0                        0                        0                        16.833637429549086
0.117755                  0.390174                 0.0882413                -0.0025339124498118372   0.003626970034668672     0.002726011378819423     16.834742272934854
0.176036                  0.310239                 0.159709                 -0.012525707670677424    0.00913884616064467      0.006635938153985797     16.835634747970424