% Model:              doublePipe.mph
% Version:            COMSOL 5.3.0.316
% Date:               Mar 1 2023, 10:38
% Dimension:          2
% Nodes:              14976
% Expressions:        3
% Description:        Velocity field, x component, Velocity field, y component, Pressure
% Length unit:        m
% X                       Y                        u (m/s) @ t=10           v (m/s) @ t=10           p (Pa) @ t=10
1.33333                   0.833333                 6.373433139616549E-6     8.670279106022457E-8     0.138322926915208
1.33333                   0.820513                 0.26781877259560916      0.04531001914535192      0.02754145743172011
1.32692                   0.826923                 0.12257012478763293      0.0016638641065076212    0.08216853719621388
1.32051                   0.833333                 6.845084084315309E-6     -9.891077186920791E-8    0.06818623561307191
1.33333                   0.807692                 0.48252060155049425      0.03717142648876337      -0.010723826898038366
1.32692                   0.814103                 0.3745077948317014       0.01046163662277656      -0.009471668120414958
1.32051                   0.820513                 0.25582838857153706      -0.010959957100444274    0.04493475207032631
1.3141                    0.826923                 0.1316363551764741       -0.001900725611068644    0.06920728604019323
1.30769                   0.833333                 6.715806981355483E-6     3.741544453685384E-8     0.0925140749464324
1.33333                   0.794872                 0.659703862193242        0.031076779266584437     0.005290779336375976
1.32692                   0.801282                 0.5717309047140957       0.013687044107028175     0.0012840323783728938
1.32051                   0.807692                 0.4781512582731495       -8.90020634764141E-4     0.029266167384988807
1.3141                    0.814103                 0.3657156335630836       -4.7527210800353396E-4   0.0711946645942947
1.30769                   0.820513                 0.25619607087591456      0.0031247764776874644    0.09654967481274006
1.30128                   0.826923                 0.12915070494863862      7.195850683601113E-4     0.11275797427673936
1.29487                   0.833333                 6.618314800701066E-6     1.8527243960505106E-8    0.13419280996531951
1.33333                   0.782051                 0.7999477497476128       0.028602884041864098     0.009658580931914646
1.32692                   0.788462                 0.7291997309203168       0.017602340744300227     0.011697431022320836
1.32051                   0.794872                 0.6544277619217527       0.00872716776313202      0.03220185016008035
1.3141                    0.801282                 0.5631739572849325       0.007739187972155993     0.05651736989674724
1.30769                   0.807692                 0.4698483831359946       0.0064085672794485056    0.08800252239924856
1.30128                   0.814103                 0.36213771576458076      0.004067923916471044     0.1072713595819276
1.29487                   0.820513                 0.252397842379623        0.0017321891231701087    0.12961235472624846
1.28846                   0.826923                 0.12727602083698103      3.564995917017963E-4     0.14883964466991503
1.28205                   0.833333                 6.496488198810565E-6     2.54176327184404E-8      0.169975556390825
1.33333                   0.769231                 0.9019700780597665       0.026785710807300116     0.011415070900737082
1.32692                   0.775641                 0.8505074301046908       0.020233104634593196     0.016164749916515436
1.32051                   0.782051                 0.7960050706192241       0.014832290276314528     0.035304434331712556
1.3141                    0.788462                 0.7233288243691932       0.013900328375711795     0.05440305616453757
1.30769                   0.794872                 0.6484027556356351       0.012177286386440889     0.08078808237698376
1.30128                   0.801282                 0.55720673812132         0.009475896779322415     0.10244956959228227
1.29487                   0.807692                 0.4642673182404374       0.006968185682597548     0.12646169837355362
1.28846                   0.814103                 0.3570216386736166       0.004417552022593802     0.14519306244631824
1.28205                   0.820513                 0.24826798661270447      0.0023170205081690927    0.16634654856354059
1.27564                   0.826923                 0.12493342777936808      4.88938600485937E-4      0.1844576038659527
1.26923                   0.833333                 6.3631991132734984E-6    2.7422545098779573E-8    0.20467148660563472
1.33333                   0.75641                  0.9636693692823833       0.025065694553761786     0.010776308524835984
1.32692                   0.762821                 0.9325750859787462       0.021877806826983752     0.017469642375759147
1.32051                   0.769231                 0.8990174221776546       0.018758821211407366     0.03621802255626245
1.3141                    0.775641                 0.8464923361188155       0.01810173264785721      0.052808501127636416
1.30769                   0.782051                 0.7918334250271314       0.01688428782789911      0.07752831003714687
1.30128                   0.788462                 0.7186000456320559       0.014942514543987906     0.0965639212484212
1.29487                   0.794872                 0.6428173000790803       0.012614562934853276     0.1218112547206988
1.28846                   0.801282                 0.5515726530842554       0.01032106869497478      0.1409583531929925
1.28205                   0.807692                 0.45823475299775773      0.007693916390505902     0.1632125397047193
1.27564                   0.814103                 0.35168398187745065      0.004959459243296105     0.18059532867718905
1.26923                   0.820513                 0.24361948773190192      0.002513667845930781     0.20040697971659932
1.26282                   0.826923                 0.12237039815100065      5.274408514658933E-4     0.21779774890393933
1.25641                   0.833333                 6.21427776333602E-6      3.9656492728735915E-8    0.23686106857139644
1.33333                   0.74359                  0.9868236594554708       0.02295226967662449      0.00960709920261102
1.32692                   0.75                     0.9753394471532097       0.02273256715682282      0.0168293652339832
1.32051                   0.75641                  0.9615677825624439       0.021299506804227906     0.03513278961286731
1.3141                    0.762821                 0.9298011375830035       0.020781676911064712     0.05112695754374191
1.30769                   0.769231                 0.896308707907454        0.019989495613780228     0.07472052503111708
1.30128                   0.775641                 0.8433605101857335       0.018772230488747297     0.09232464958806078
1.29487                   0.782051                 0.7880165237013607       0.017236140355851106     0.11734645443345605
1.28846                   0.788462                 0.7139831064773717       0.015627926757580613     0.13579468476271506
1.28205                   0.794872                 0.6374481011226107       0.013530133849755944     0.15930305032776257
1.27564                   0.801282                 0.5457521956484391       0.011126606233218428     0.17699375189733632
1.26923                   0.807692                 0.45193244521603404      0.008337749664814214     0.19755201883864146
1.26282                   0.814103                 0.34591117144243977      0.005394961261388396     0.21390224423313176
1.25641                   0.820513                 0.2385607147170142       0.002747840214388742     0.2322431431489372
1.25                      0.826923                 0.1195737273251243       5.792547774560309E-4     0.24859528149944432
1.24359                   0.833333                 6.181479949943349E-6     4.1028938562617286E-8    0.26626444321916737
1.33333                   0.730769                 0.9709407329069983       0.019116417630912368     0.008637000790322964
1.32692                   0.737179                 0.9797278644441111       0.022563492071113758     0.013892422573127994
1.32051                   0.74359                  0.9856934413583747       0.022853218414554535     0.03234164499018617
1.3141                    0.75                     0.9735052737550701       0.02258143993113345      0.04863370880617182
1.30769                   0.75641                  0.9596649938909615       0.022058308557437647     0.07146820339674899
1.30128                   0.762821                 0.9277099058842698       0.02127268449484623      0.08877663221846561
1.29487                   0.769231                 0.8938412481283139       0.02031347103015818      0.11316239453102285
1.28846                   0.775641                 0.8402841677254052       0.019308532454334604     0.13058883487120163
1.28205                   0.782051                 0.7843607543936068       0.01798424887132966      0.15495930256868826
1.27564                   0.788462                 0.7095332323547032       0.016444906735582764     0.17205563146936487
1.26923                   0.794872                 0.6320709975787288       0.014325466513791855     0.19412220973619362
1.26282                   0.801282                 0.5397824911642962       0.011884918855867354     0.210450784231717
1.25641                   0.807692                 0.4452952159276879       0.00894136025717417      0.2294344196590045
1.25                      0.814103                 0.33976635953033013      0.005826897590116133     0.244609331415773
1.24359                   0.820513                 0.233094631056864        0.0029765720764549737    0.26125025541261315
1.23718                   0.826923                 0.1165453681102922       6.305152784064119E-4     0.2763604930973225
1.23077                   0.833333                 6.060286393592888E-6     3.278229693028766E-8     0.2923779992944743
1.33333                   0.717949                 0.9070260399652391       0.011499315578631594     0.006125866976026853
1.32692                   0.724359                 0.9412754642813497       0.02049232451125886      0.00769031911748398
1.32051                   0.730769                 0.9714185599353286       0.023148283396686623     0.027802090511260525
1.3141                    0.737179                 0.9791169421961184       0.023486615070762783     0.04448844516791731
1.30769                   0.74359                  0.9846190646708995       0.02341949890527061      0.06756494263388452
1.30128                   0.75                     0.9721290725998808       0.023047578514639365     0.08530651212676636
1.29487                   0.75641                  0.957879804159982        0.022412533664596848     0.10891920028780805
1.28846                   0.762821                 0.9256077917709631       0.0216937917986781       0.12631772146307177
1.28205                   0.769231                 0.8915036594892323       0.020858585668257552     0.1504545058775589
1.27564                   0.775641                 0.8374053286382211       0.01993720881186124      0.16697720090510493
1.26923                   0.782051                 0.780905621903961        0.018698909297322208     0.19026089174911628
1.26282                   0.788462                 0.7051674999657785       0.017221852299981983     0.2058944541658025
1.25641                   0.794872                 0.626682586308421        0.015103432467165726     0.22645126039194535
1.25                      0.801282                 0.5336404309146959       0.012616261736845142     0.2413186440222
1.24359                   0.807692                 0.43834752081044         0.009540018138906517     0.2585271294861529
1.23718                   0.814103                 0.33325214506156275      0.006258650700864958     0.2723132650618087
1.23077                   0.820513                 0.22722138415080115      0.0032095474664272       0.28697291833960964
1.22436                   0.826923                 0.1132817767609805       6.836480522200937E-4     0.30059466982636407
1.21795                   0.833333                 5.8905787363372385E-6    3.554103180642851E-8     0.31466943694993793
1.33333                   0.705128                 0.7804412364166275       -0.0015370197546307703   -4.0299847674134774E-4
1.32692                   0.711538                 0.8478388989699136       0.015588505707026993     -0.0033022181133184033
1.32051                   0.717949                 0.9099084483287255       0.021616091939351153     0.02120201876402774
1.3141                    0.724359                 0.9424722036792714       0.02276154872161513      0.038268248546470506
1.30769                   0.730769                 0.9719549205464718       0.02361209507855016      0.06313493999081933
1.30128                   0.737179                 0.9789179918140718       0.024072970212663823     0.08099269027434394
1.29487                   0.74359                  0.9835249755676577       0.023911877378612775     0.10466012467353952
1.28846                   0.75                     0.9706347000937395       0.02347489398625666      0.12258890169378024
1.28205                   0.75641                  0.9560976752574042       0.022847794635619825     0.14605594010003095
1.27564                   0.762821                 0.9236147358796569       0.022147809855473145     0.1628800790096263
1.26923                   0.769231                 0.8893475038635981       0.021375129511954374     0.18621398827878344
1.26282                   0.775641                 0.8347241690152264       0.02052299298279319      0.20139615650386528
1.25641                   0.782051                 0.7776554363869085       0.019358116007282145     0.2233429878878896
1.25                      0.788462                 0.7009209649445712       0.017939282586914174     0.23724433316314922
1.24359                   0.794872                 0.6213140650860572       0.015824686314142588     0.2560995859445785
1.23718                   0.801282                 0.5273763320351627       0.01331275143374675      0.26923955165795876
1.23077                   0.807692                 0.4311237904093344       0.010118563978530039     0.2843989285023621
1.22436                   0.814103                 0.32639235382124876      0.006685554158848619     0.2965219122905028
1.21795                   0.820513                 0.22094529980871522      0.0034418699747126697    0.3088789877814547
1.21154                   0.826923                 0.10978343525131364      7.37451548211647E-4      0.32073256803355055
1.20513                   0.833333                 5.708661060787582E-6     3.8334128921400526E-8    0.33253439497197756
1.33333                   0.692308                 0.5805645385071035       -0.021597842938864333    -0.02288726746492233
1.32692                   0.698718                 0.6870958889874562       0.008449760632428744     -0.021164862856799187
1.32051                   0.705128                 0.785220005807838        0.01844407940883812      0.012403038928680691
1.3141                    0.711538                 0.8508337619770241       0.01966198344155114      0.03149040957291726
1.30769                   0.717949                 0.9129060936416116       0.021609757879128305     0.058850381271824216
1.30128                   0.724359                 0.9444604273923813       0.023475517946168034     0.07570198894518974
1.29487                   0.730769                 0.9724648388715551       0.024331230783229522     0.10060050777907646
1.28846                   0.737179                 0.9785127122836343       0.024634722120171777     0.11855115417416616
1.28205                   0.74359                  0.9823005168405926       0.02437894478288408      0.14199522439233123
1.27564                   0.75                     0.9691088967955386       0.02387527959530457      0.15961729421929255
1.26923                   0.75641                  0.9543708876520438       0.023229620105199793     0.18241736740991418
1.26282                   0.762821                 0.9217546588974344       0.02252942872125926      0.19820934979819047
1.25641                   0.769231                 0.887404433916267        0.021799496021715808     0.22032682151001098
1.25                      0.775641                 0.8322767556498039       0.020998010132611666     0.23378415377967132
1.24359                   0.782051                 0.7746630663094085       0.01990147255594326      0.25408402894839965
1.23718                   0.788462                 0.6968522357404926       0.018548996342884424     0.2658959127476751
1.23077                   0.794872                 0.6160404409169762       0.016459408581750528     0.2827368673751269
1.22436                   0.801282                 0.5210567476190358       0.013947777378577534     0.293793009842855
1.21795                   0.807692                 0.4236811202032592       0.010659019752086801     0.30655613403602894
1.21154                   0.814103                 0.3192243848495391       0.007095652207135809     0.3166895757610844
1.20513                   0.820513                 0.21428166879374128      0.0036674470290208564    0.32637734421610104
1.19872                   0.826923                 0.10605703080122657      7.907071494573769E-4     0.33614160621726924
1.19231                   0.833333                 5.5148806650363775E-6    4.109826485222203E-8     0.3452957258594557
1.33333                   0.679487                 0.31394917565883296      -0.04460077283160011     0.008353600376890508
1.32692                   0.685897                 0.45293400859641547      -2.3027195007120028E-4   -0.03897090633779678
1.32051                   0.692308                 0.5871614265910688       0.01659046834688475      0.0037360823523605543
1.3141                    0.698718                 0.6897302145011376       0.014513755706562728     0.027575631095657725
1.30769                   0.705128                 0.7905519120538755       0.016828302035106144     0.056117569464413916
1.30128                   0.711538                 0.8555858755344619       0.020130633351023785     0.07084617672324293
1.29487                   0.717949                 0.916233478698154        0.022514221236638973     0.09727117856539876
1.28846                   0.724359                 0.9462899304100437       0.02422024455097027      0.11387143017637849
1.28205                   0.730769                 0.9727889875007951       0.024942550231161747     0.13842012805931908
1.27564                   0.737179                 0.9779649876657038       0.02512676167531485      0.15627018858428765
1.26923                   0.74359                  0.9809817934343584       0.024770063885068323     0.17916383071928443
1.26282                   0.75                     0.9675726602710867       0.02417850355280166      0.19612245449455745
1.25641                   0.75641                  0.9527244147735954       0.023489847608693406     0.21784934498918312
1.25                      0.762821                 0.9200573462539363       0.022761343945888416     0.23219499211197242
1.24359                   0.769231                 0.8857139405179836       0.02205186084051389      0.252694565082026
1.23718                   0.775641                 0.8301187184622777       0.021287855673658238     0.2639942987642424
1.23077                   0.782051                 0.7720081209153303       0.020263006996865472     0.28225781536749983
1.22436                   0.788462                 0.6930557620638089       0.018992711230430025     0.29151807903056326
1.21795                   0.794872                 0.610969109165484        0.01695639363649448      0.3059474050565774
1.21154                   0.801282                 0.514781037346453        0.014481889852994593     0.3144792827085495
1.20513                   0.807692                 0.4161043637196449       0.011131839748693785     0.3244393625978068
1.19872                   0.814103                 0.31180887408716956      0.007471352847676657     0.33220281239990657
1.19231                   0.820513                 0.2072620634913196       0.003877428243652977     0.338806829469539
1.1859                    0.826923                 0.10211819826282723      8.416231734891024E-4     0.3461143058623746
1.17949                   0.833333                 5.310050119591797E-6     4.374036484820586E-8     0.35219621115377525
1.32692                   0.673077                 0.14721875258618686      -0.0011873244810692702   0.05724932194072566
1.33333                   0.666667                 7.65504920074721E-6      -6.19842684082636E-8     0.11605393924784747
1.32051                   0.679487                 0.31272121105257955      0.01669774705190666      0.016545507622339594
1.3141                    0.685897                 0.454417663466602        0.010111204460797826     0.041336919529938225
1.30769                   0.692308                 0.5917269966287004       0.009838071500477625     0.05911385706744343
1.30128                   0.698718                 0.6964644212113383       0.013942256970139455     0.06999247066825763
1.29487                   0.705128                 0.7968073709928317       0.017599285018590215     0.09544777255042118
1.28846                   0.711538                 0.8604814818616767       0.020921211898347846     0.10956577497392933
1.28205                   0.717949                 0.919504996964991        0.02325000796074892      0.13559166227364222
1.27564                   0.724359                 0.9479955258490516       0.02489614056942319      0.15224424279271406
1.26923                   0.730769                 0.9729185650460545       0.025485107706709375     0.1764383044907287
1.26282                   0.737179                 0.9772655792654157       0.02551481984803151      0.194046241019983
1.25641                   0.74359                  0.9795765834295166       0.02502669352808587      0.21610491387544564
1.25                      0.75                     0.9660391061658139       0.02431206995764682      0.23205320948528346
1.24359                   0.75641                  0.951178349287857        0.02354653624755938      0.25230522014159906
1.23718                   0.762821                 0.9185545277481759       0.022756767968142712     0.26476938208925255
1.23077                   0.769231                 0.8843276953068174       0.022045374690730757     0.2831948246800187
1.22436                   0.775641                 0.8283267310309822       0.021305262244331928     0.29182623860338225
1.21795                   0.782051                 0.7698000428162236       0.020359840740257342     0.30757253224997866
1.21154                   0.788462                 0.6896579101854968       0.019193329483590538     0.31371835581676516
1.20513                   0.794872                 0.6062462751318687       0.017249260802745862     0.3252559534259699
1.19872                   0.801282                 0.5086853610613854       0.014861827154593044     0.33073812017305876
1.19231                   0.807692                 0.40851454742335913      0.011498330932526106     0.33742520521170954
1.1859                    0.814103                 0.30423631934800593      0.007789393125103501     0.3423785755787378
1.17949                   0.820513                 0.1999394873439321       0.0040603869109537725    0.3454311164750318
1.17308                   0.826923                 0.09799421577137887      8.878956730969912E-4     0.34986209889101594
1.16667                   0.833333                 5.095587459444695E-6     4.6140780462149175E-8    0.3523905127923102
1                         1                        0                        0                        3.395226006301221
1.32051                   0.666667                 8.443241891464822E-6     1.489290965713589E-7     0.034740989485933044
1.3141                    0.673077                 0.1623714765103331       0.00286315781923203      0.0350223137315752
1.30769                   0.679487                 0.3222692125295578       0.00137090012701989      0.0635239909207022
1.30128                   0.685897                 0.4624804467407063       0.0061131389430484915    0.07098549466429159
1.29487                   0.692308                 0.5997011907923113       0.010240939058476778     0.09444265379943846
1.28846                   0.698718                 0.7037912980489685       0.01437081091204854      0.10708903466303638
1.28205                   0.705128                 0.8034786424441238       0.01822957335333261      0.133532561312342
1.27564                   0.711538                 0.865491036592681        0.021703967819992696     0.1480022245360017
1.26923                   0.717949                 0.9226569924406864       0.023994107456389076     0.17421283219181052
1.26282                   0.724359                 0.9495022688857991       0.02550325457351764      0.19107581754273933
1.25641                   0.730769                 0.9728199311055115       0.025909869969805356     0.21482745058372835
1.25                      0.737179                 0.9763980873055432       0.025735271202091944     0.23198251160575098
1.24359                   0.74359                  0.9780840350021445       0.0250723972434978       0.25289166267273994
1.23718                   0.75                     0.9645157806591          0.0241898939216471       0.2674497919206957
1.23077                   0.75641                  0.9497513852092155       0.023306259208144206     0.28578318844102135
1.22436                   0.762821                 0.9172843455124416       0.022415498003775805     0.2958753364139901
1.21795                   0.769231                 0.8833100585125411       0.02167577031216129      0.3116893562715807
1.21154                   0.775641                 0.8269986746800847       0.020942968522205202     0.31704984870793046
1.20513                   0.782051                 0.7681792309601          0.02008709089943634      0.3297004955425097
1.19872                   0.788462                 0.6868231756901104       0.01905182947387079      0.33206006653391684
1.19231                   0.794872                 0.6020652822240443       0.017251387407357616     0.3401396904905152
1.1859                    0.801282                 0.5029535933527169       0.015018061475395186     0.3419501567295575
1.17949                   0.807692                 0.4010796477550913       0.011707937187014055     0.34482500328036836
1.17308                   0.814103                 0.29663639316973817      0.008019628327531145     0.34645938517986424
1.16667                   0.820513                 0.19239466350114462      0.0042016781096131045    0.34543158563648957
1.16026                   0.826923                 0.09372735399697342      9.26573977331444E-4      0.34650613470988906
1.15385                   0.833333                 4.873690368365271E-6     4.814631949688611E-8     0.3449323304012435
1                         0.987179                 0                        0                        3.3945430531698775
0.993506                  0.99359                  -6.426382429885548E-5    6.352271992493551E-5     3.3952344979960505
0.987013                  1                        -7.13389391367741E-21    7.051624943062837E-21    3.395916410871462
1.30769                   0.666667                 8.545888373369197E-6     1.1649607650548725E-8    0.05075381272419946
1.30128                   0.673077                 0.16434586318415464      2.2453568881067806E-4    0.0717874246239573
1.29487                   0.679487                 0.3279848854901332       0.003472544464338917     0.09128732366444599
1.28846                   0.685897                 0.4693189526625833       0.006441651381128608     0.10644953717507692
1.28205                   0.692308                 0.6078448835619963       0.010571609646010149     0.13126697673022883
1.27564                   0.698718                 0.7114181430815882       0.015009149528079847     0.1448148801867973
1.26923                   0.705128                 0.8102955757119701       0.019033201331280416     0.17224021007802098
1.26282                   0.711538                 0.8704463893764807       0.022521661655568688     0.18730787947766947
1.25641                   0.717949                 0.9255818349043347       0.024685809538176867     0.21372569241009665
1.25                      0.724359                 0.9507447133027673       0.02598299520579392      0.23074305165199274
1.24359                   0.730769                 0.9724538190256722       0.026145035910985305     0.25384497491630614
1.23718                   0.737179                 0.9753411697186953       0.025705893668190222     0.2702677381129863
1.23077                   0.74359                  0.9764990398319784       0.02481521758440507      0.2896640186017104
1.22436                   0.75                     0.9630088758911466       0.02371090887277277      0.30240484750058905
1.21795                   0.75641                  0.9484624345539956       0.02265891687296965      0.3183129437526904
1.21154                   0.762821                 0.9162909364405777       0.021617798240018422     0.325474326681145
1.20513                   0.769231                 0.8827375331013982       0.02081601833867394      0.3380450433707817